###############################################################################
# Megaw, H.D. (1962)
# Acta Crystallographica (1,1948-23,1967) 15, 972-973
# Refinement of the structure of Ba Ti O3 and other ferroelectrics
# 
# CIF by ICSD-for-WWW,  Copyright 2003 FIZ-Karlsruhe & A.W.Hewat (hewat@ill.fr)
# NOT TO BE PUBLISHED IN ANY FORM. See http://icsd.ill.fr/icsd/conditions.html
###############################################################################

data_34637-ICSD
_database_code_ICSD                34637
_audit_creation_date               1980-01-01
_chemical_name_systematic
'Barium trioxotitanate'
_chemical_formula_structural       
'Ba Ti O3'
_chemical_formula_sum              
'Ba1 O3 Ti1'
_publ_section_title                
'Ba1 O3 Ti1'
loop_
_citation_id
_citation_journal_abbrev
_citation_year
_citation_journal_volume
_citation_page_first
_citation_page_last
_citation_journal_id_ASTM
primary 'Acta Crystallographica (1,1948-23,1967)' 1962 15 972 973 ACCRA9
loop_
_publ_author_name
Megaw, H.D.
_cell_length_a                     3.9945
_cell_length_b                     3.9945
_cell_length_c                     4.0335
_cell_angle_alpha                  90.
_cell_angle_beta                   90.
_cell_angle_gamma                  90.
_cell_volume                       64.3601
_cell_formula_units_Z              1
_symmetry_space_group_name_H-M     'P 4 m m'
_symmetry_Int_Tables_number        99
loop_
_symmetry_equiv_pos_site_id
_symmetry_equiv_pos_as_xyz
   1   'y, -x, z'
   2   '-y, x, z'
   3   '-y, -x, z'
   4   'y, x, z'
   5   'x, -y, z'
   6   '-x, y, z'
   7   '-x, -y, z'
   8   'x, y, z'
loop_
_atom_type_symbol
_atom_type_oxidation_number
Ba2+     2.
Ti4+     4.
O2-     -2.
 loop_
_atom_site_label
_atom_site_type_symbol
_atom_site_symmetry_multiplicity
_atom_site_Wyckoff_symbol
_atom_site_fract_x
_atom_site_fract_y
_atom_site_fract_z
_atom_site_B_iso_or_equiv
_atom_site_occupancy
Ba1 Ba2+ 1 a 0 0 0 0. 1.
Ti1 Ti4+ 1 b 0.5 0.5 0.5142(7) 0. 1.
O1 O2- 1 b 0.5 0.5 -.0255(23) 0. 1.
O2 O2- 2 c 0 0.5 -.5123(82) 0. 1.
#End of data_34637-ICSD

